 Gaussian 09, Revision D.01,
 Gaussian 09:  EM64L-G09RevD.01 24-Apr-2013

 ------------------------
 # b3lyp/6-31g* opt=tight
 ------------------------

 -------------------
 Title Card Required
 -------------------
 Symbolic Z-matrix:
 Charge =  0 Multiplicity = 1

 SCF Done:  E(RB3LYP) =  -287.590561482     A.U. after   13 cycles
 SCF Done:  E(RB3LYP) =  -287.592594012     A.U. after   12 cycles
 SCF Done:  E(RB3LYP) =  -287.592699377     A.U. after    9 cycles
 SCF Done:  E(RB3LYP) =  -287.592701135     A.U. after    8 cycles
 SCF Done:  E(RB3LYP) =  -287.592701225     A.U. after    7 cycles
 SCF Done:  E(RB3LYP) =  -287.592701243     A.U. after    6 cycles
 SCF Done:  E(RB3LYP) =  -287.592701257     A.U. after    6 cycles
 SCF Done:  E(RB3LYP) =  -287.546761528     A.U. after   14 cycles
 SCF Done:  E(RB3LYP) =  -287.592701260     A.U. after    8 cycles
 SCF Done:  E(RB3LYP) =  -287.571063390     A.U. after   13 cycles
 SCF Done:  E(RB3LYP) =  -287.601364597     A.U. after   14 cycles
 SCF Done:  E(RB3LYP) =  -287.600012264     A.U. after   14 cycles
 SCF Done:  E(RB3LYP) =  -287.601543376     A.U. after   12 cycles
 SCF Done:  E(RB3LYP) =  -287.601510614     A.U. after   12 cycles
 SCF Done:  E(RB3LYP) =  -287.601693062     A.U. after    9 cycles
 SCF Done:  E(RB3LYP) =  -287.601759575     A.U. after   11 cycles
 SCF Done:  E(RB3LYP) =  -287.601760646     A.U. after    8 cycles
 SCF Done:  E(RB3LYP) =  -287.601760733     A.U. after    7 cycles
 SCF Done:  E(RB3LYP) =  -287.601760738     A.U. after    6 cycles
 SCF Done:  E(RB3LYP) =  -287.601760738     A.U. after    5 cycles
 Optimization completed.
    -- Stationary point found.

                         Standard orientation:
 ---------------------------------------------------------------------
 Center     Atomic      Atomic             Coordinates (Angstroms)
 Number     Number       Type             X           Y           Z
 ---------------------------------------------------------------------
      1          6           0        1.171823    1.202607   -0.003378
      2          6           0       -0.221258    1.208250    0.005175
      3          6           0       -0.938744    0.000005    0.010139
      4          6           0       -0.221264   -1.208245    0.005174
      5          6           0        1.171814   -1.202613   -0.003376
      6          6           0        1.881692   -0.000004   -0.008330
      7          1           0        1.705685    2.149751   -0.008797
      8          1           0       -0.763316    2.151753    0.013278
      9          1           0       -0.763336   -2.151740    0.013273
     10          1           0        1.705670   -2.149760   -0.008797
     11          1           0        2.967653   -0.000007   -0.016608
     12          7           0       -2.337380    0.000001    0.078910
     13          1           0       -2.777535    0.834905   -0.288575
     14          1           0       -2.777536   -0.834906   -0.288567
 ---------------------------------------------------------------------

 The electronic state is 1-A.
 Alpha  occ. eigenvalues --  -14.33775 -10.22229 -10.18140 -10.18138 -10.17678
 Alpha  occ. eigenvalues --  -10.17678 -10.17181  -0.91310  -0.82662  -0.73495
 Alpha  occ. eigenvalues --   -0.71675  -0.60356  -0.58961  -0.51612  -0.50195
 Alpha  occ. eigenvalues --   -0.47125  -0.42452  -0.41815  -0.41007  -0.37328
 Alpha  occ. eigenvalues --   -0.34965  -0.33358  -0.30191  -0.24060  -0.19816
 Alpha virt. eigenvalues --    0.00920   0.02380   0.08201   0.10329   0.12425
 Alpha virt. eigenvalues --    0.16371   0.16631   0.17650   0.19525   0.19571
 Alpha virt. eigenvalues --    0.26611   0.31295   0.32618   0.35003   0.35652

 Mulliken charges:
               1
     1  C   -0.134681
     2  C   -0.172505
     3  C    0.306846
     4  C   -0.172504
     5  C   -0.134682
     6  C   -0.138860
     7  H    0.124239
     8  H    0.114102
     9  H    0.114102
    10  H    0.124239
    11  H    0.120088
    12  N   -0.786185
    13  H    0.317901
    14  H    0.317901
 Sum of Mulliken charges =   0.00000

 Dipole moment (field-independent basis, Debye):
    X=             -1.2609    Y=              0.0000    Z=             -1.1594  Tot=              1.7130
 Quadrupole moment (field-independent basis, Debye-Ang):
   XX=            -34.3354   YY=            -36.3040   ZZ=            -45.3079
   XY=              0.0000   XZ=              3.5054   YZ=              0.0000

 Normal termination of Gaussian 09 at Fri Jan 10 20:19:55 2020.
