 Gaussian 09, Revision D.01,
 Gaussian 09:  EM64L-G09RevD.01 24-Apr-2013

 --------------------------------------------------------
 # HF/6-31G* SCF=Tight Pop=MK IOp(6/33=2,6/41=10,6/42=17)
 --------------------------------------------------------

 -------------------
 Title Card Required
 -------------------
 Symbolic Z-matrix:
 Charge =  0 Multiplicity = 1

                         Standard orientation:
 ---------------------------------------------------------------------
 Center     Atomic      Atomic             Coordinates (Angstroms)
 Number     Number       Type             X           Y           Z
 ---------------------------------------------------------------------
      1          6           0       -1.171823    1.202607    0.003378
      2          6           0        0.221258    1.208250   -0.005175
      3          6           0        0.938744    0.000005   -0.010139
      4          6           0        0.221264   -1.208245   -0.005174
      5          6           0       -1.171814   -1.202613    0.003376
      6          6           0       -1.881692   -0.000004    0.008330
      7          1           0       -1.705685    2.149751    0.008797
      8          1           0        0.763316    2.151753   -0.013278
      9          1           0        0.763336   -2.151740   -0.013273
     10          1           0       -1.705670   -2.149760    0.008797
     11          1           0       -2.967653   -0.000007    0.016608
     12          7           0        2.337380    0.000001   -0.078910
     13          1           0        2.777535    0.834905    0.288575
     14          1           0        2.777536   -0.834906    0.288567
 ---------------------------------------------------------------------

 SCF Done:  E(RHF) =  -285.729104769     A.U. after   14 cycles

 The electronic state is 1-A.
 Alpha  occ. eigenvalues --  -15.56550 -11.27580 -11.23326 -11.23323 -11.22199
 Alpha  occ. eigenvalues --  -11.22197 -11.21776  -1.21677  -1.11848  -1.00477
 Alpha  occ. eigenvalues --   -0.97857  -0.82427  -0.80574  -0.69745  -0.67783
 Alpha  occ. eigenvalues --   -0.65034  -0.59182  -0.58511  -0.57493  -0.52625
 Alpha  occ. eigenvalues --   -0.50090  -0.48239  -0.44087  -0.32941  -0.28734
 Alpha virt. eigenvalues --    0.14832   0.16587   0.22620   0.24686   0.27204
 Alpha virt. eigenvalues --    0.31330   0.31568   0.33979   0.34883   0.37703
 Alpha virt. eigenvalues --    0.44364   0.48246   0.50444   0.53234   0.54934

 Mulliken charges:
               1
     1  C   -0.178581
     2  C   -0.256471
     3  C    0.304754
     4  C   -0.256470
     5  C   -0.178581
     6  C   -0.234480
     7  H    0.199151
     8  H    0.191513
     9  H    0.191512
    10  H    0.199151
    11  H    0.194440
    12  N   -0.895841
    13  H    0.359952
    14  H    0.359952
 Sum of Mulliken charges =   0.00000

 Dipole moment (field-independent basis, Debye):
    X=              0.9178    Y=              0.0000    Z=              1.2628  Tot=              1.5611
 Quadrupole moment (field-independent basis, Debye-Ang):
   XX=            -35.0862   YY=            -35.9888   ZZ=            -46.7456
   XY=              0.0000   XZ=              3.8075   YZ=              0.0000

 ESP charges:
               1
     1  C   -0.062863
     2  C   -0.369134
     3  C    0.503195
     4  C   -0.369134
     5  C   -0.062859
     6  C   -0.239133
     7  H    0.136280
     8  H    0.181401
     9  H    0.181401
    10  H    0.136279
    11  H    0.145494
    12  N   -0.920057
    13  H    0.369564
    14  H    0.369565
 Sum of ESP charges =   0.00000

 Normal termination of Gaussian 09 at Sat Jan 11 12:27:18 2020.
